 Gaussian 16, Revision A.03,
 Gaussian 16:  ES64L-G16RevA.03 25-Dec-2016

 -----------------------------------------
 #p TD(nstates=20,root=1) pbe1pbe/def2tzvp
 -----------------------------------------

 ----
 gebf
 ----
 Symbolic Z-matrix:
 Charge =  0 Multiplicity = 1

                         Standard orientation:
 ---------------------------------------------------------------------
 Center     Atomic      Atomic             Coordinates (Angstroms)
 Number     Number       Type             X           Y           Z
 ---------------------------------------------------------------------
      1          6           0        0.000000    3.817482   -2.804420
      2          6           0        0.000000    2.534466   -3.340464
      3          6           0       -0.000000    1.420258   -2.507726
      4          6           0        0.000000    1.603747   -1.137589
      5          6           0        0.000000    2.895413   -0.599383
      6          6           0        0.000000    4.007887   -1.429923
      7          1           0        0.000000    4.675479   -3.467192
      8          1           0        0.000000    2.402742   -4.416621
      9          1           0       -0.000000    0.422949   -2.936306
     10          1           0        0.000000    5.010973   -1.017096
     11          6           0       -0.000000    0.557487   -0.041118
     12          6           0       -0.000000    1.429696    1.198316
     13          6           0       -0.000000    1.045433    2.526208
     14          6           0        0.000000    2.024072    3.514742
     15          6           0        0.000000    3.372322    3.174646
     16          6           0        0.000000    3.764109    1.843480
     17          6           0        0.000000    2.786873    0.857395
     18          1           0       -0.000000   -0.004313    2.802504
     19          1           0        0.000000    1.734429    4.559524
     20          1           0        0.000000    4.122740    3.957139
     21          1           0        0.000000    4.817247    1.583642
     22          6           0       -1.249458   -0.342850   -0.107830
     23          1           0       -1.190642   -0.933612   -1.030087
     24          1           0       -1.188829   -1.064453    0.715980
     25          6           0        1.249458   -0.342850   -0.107830
     26          1           0        1.188829   -1.064453    0.715979
     27          1           0        1.190642   -0.933612   -1.030088
     28          6           0       -2.589576    0.371976   -0.052220
     29          1           0       -2.652890    0.962589    0.868232
     30          1           0       -2.660085    1.086622   -0.879490
     31          6           0       -3.767201   -0.588634   -0.114610
     32          1           0       -3.707047   -1.181255   -1.036458
     33          1           0       -3.694565   -1.308539    0.710692
     34          6           0        2.589576    0.371976   -0.052220
     35          1           0        2.652891    0.962588    0.868233
     36          1           0        2.660085    1.086623   -0.879490
     37          6           0        3.767201   -0.588633   -0.114611
     38          1           0        3.707048   -1.181254   -1.036460
     39          1           0        3.694565   -1.308540    0.710690
     40          6           0       -5.117484    0.107624   -0.053423
     41          1           0       -5.175652    0.702534    0.866620
     42          1           0       -5.192553    0.825176   -0.879999
     43          6           0       -6.297869   -0.849000   -0.108482
     44          1           0       -6.241437   -1.442464   -1.029844
     45          1           0       -6.220231   -1.568014    0.716938
     46          6           0        5.117484    0.107624   -0.053423
     47          1           0        5.175652    0.702532    0.866621
     48          1           0        5.192553    0.825178   -0.879997
     49          6           0        6.297869   -0.848999   -0.108483
     50          1           0        6.241438   -1.442462   -1.029847
     51          1           0        6.220231   -1.568016    0.716934
     52          6           0       -7.647900   -0.152853   -0.041442
     53          1           0       -7.702572    0.442497    0.878722
     54          1           0       -7.727123    0.564558   -0.867966
     55          6           0        7.647900   -0.152853   -0.041441
     56          1           0        7.702571    0.442494    0.878724
     57          1           0        7.727123    0.564561   -0.867964
     58          6           0        8.828976   -1.108988   -0.091139
     59          1           0        8.775935   -1.703213   -1.012175
     60          1           0        8.748249   -1.827377    0.734482
     61          6           0       -8.828976   -1.108989   -0.091136
     62          1           0       -8.775935   -1.703216   -1.012171
     63          1           0       -8.748249   -1.827374    0.734487
     64          6           0       10.178656   -0.412601   -0.019805
     65          1           0       10.260486    0.304626   -0.846274
     66          1           0       10.230411    0.182974    0.900410
     67          6           0       11.360042   -1.368553   -0.065684
     68          1           0       11.277287   -2.086395    0.760192
     69          1           0       11.309411   -1.963401   -0.986441
     70          6           0       12.709444   -0.671924    0.008463
     71          1           0       12.792900    0.045164   -0.817974
     72          1           0       12.759254   -0.076203    0.928695
     73          6           0       13.891011   -1.627766   -0.034974
     74          1           0       13.807099   -2.345150    0.791164
     75          1           0       13.841837   -2.223123   -0.955467
     76          6           0       15.240246   -0.930953    0.040682
     77          1           0       15.324528   -0.213984   -0.785803
     78          1           0       15.288980   -0.335106    0.960914
     79          6           0       16.421982   -1.886348   -0.001408
     80          1           0       16.338652   -2.603718    0.825004
     81          1           0       16.374539   -2.482479   -0.921676
     82          6           0       17.771677   -1.189976    0.074698
     83          1           0       17.854239   -0.474017   -0.751431
     84          1           0       17.818125   -0.594867    0.994262
     85          6           0       18.945036   -2.154259    0.032279
     86          1           0       19.901026   -1.628358    0.088471
     87          1           0       18.905280   -2.860450    0.866573
     88          1           0       18.941733   -2.738791   -0.892189
     89          6           0      -10.178656   -0.412602   -0.019806
     90          1           0      -10.230411    0.182977    0.900407
     91          1           0      -10.260486    0.304623   -0.846277
     92          6           0      -11.360042   -1.368553   -0.065682
     93          1           0      -11.277288   -2.086392    0.760197
     94          1           0      -11.309410   -1.963406   -0.986436
     95          6           0      -12.709444   -0.671924    0.008461
     96          1           0      -12.759254   -0.076199    0.928691
     97          1           0      -12.792899    0.045160   -0.817978
     98          6           0      -13.891011   -1.627766   -0.034972
     99          1           0      -13.807099   -2.345147    0.791169
    100          1           0      -13.841836   -2.223127   -0.955462
    101          6           0      -15.240246   -0.930953    0.040680
    102          1           0      -15.288981   -0.335101    0.960908
    103          1           0      -15.324527   -0.213988   -0.785808
    104          6           0      -16.421982   -1.886348   -0.001407
    105          1           0      -16.338653   -2.603714    0.825008
    106          1           0      -16.374539   -2.482483   -0.921672
    107          6           0      -17.771677   -1.189976    0.074695
    108          1           0      -17.818125   -0.594863    0.994256
    109          1           0      -17.854238   -0.474020   -0.751437
    110          6           0      -18.945036   -2.154258    0.032280
    111          1           0      -18.905280   -2.860446    0.866577
    112          1           0      -19.901026   -1.628357    0.088468
    113          1           0      -18.941733   -2.738795   -0.892186
 ---------------------------------------------------------------------

 SCF Done:  E(RPBE1PBE) =  -1679.33954963     A.U. after   13 cycles

 Excitation energies and oscillator strengths:

 Excited State   1:      Singlet-A      4.5560 eV  272.13 nm  f=0.2320  <S**2>=0.000
     162 -> 165        0.20161
     162 -> 166       -0.12643
     164 -> 165        0.60836
     164 -> 166        0.25222
 This state for optimization and/or second-order correction.
 Total Energy, E(TD-HF/TD-DFT) =  -1679.17211920
 Copying the excited state density for this state as the 1-particle RhoCI density.

 Excited State   2:      Singlet-A      4.7836 eV  259.18 nm  f=0.0923  <S**2>=0.000
     162 -> 165        0.23262
     164 -> 165       -0.31616
     164 -> 166        0.58221

 Excited State   3:      Singlet-A      4.9639 eV  249.77 nm  f=0.0087  <S**2>=0.000
     163 -> 165        0.56676
     164 -> 167        0.39101

 Excited State   4:      Singlet-A      5.5647 eV  222.80 nm  f=0.0413  <S**2>=0.000
     162 -> 165        0.62368
     164 -> 166       -0.29774

 Excited State   5:      Singlet-A      5.7312 eV  216.33 nm  f=0.0428  <S**2>=0.000
     163 -> 165        0.32096
     163 -> 166        0.46180
     164 -> 167       -0.38054
     164 -> 168        0.13392

 Excited State   6:      Singlet-A      5.9180 eV  209.50 nm  f=0.1417  <S**2>=0.000
     160 -> 165       -0.16954
     161 -> 165        0.16974
     163 -> 165       -0.19198
     163 -> 166        0.48165
     164 -> 167        0.39089

 Excited State   7:      Singlet-A      6.0149 eV  206.13 nm  f=0.1734  <S**2>=0.000
     162 -> 166        0.65268
     163 -> 167       -0.24075

 Excited State   8:      Singlet-A      6.2546 eV  198.23 nm  f=0.0236  <S**2>=0.000
     160 -> 165        0.32953
     160 -> 166       -0.13793
     161 -> 165       -0.26890
     164 -> 167        0.12505
     164 -> 168        0.51295

 Excited State   9:      Singlet-A      6.4218 eV  193.07 nm  f=0.0287  <S**2>=0.000
     160 -> 165       -0.31984
     161 -> 165        0.17198
     162 -> 167        0.52121
     162 -> 168        0.11820
     164 -> 168        0.23592

 Excited State  10:      Singlet-A      6.4959 eV  190.87 nm  f=0.0000  <S**2>=0.000
     164 -> 169        0.65457
     164 -> 171        0.19970
     164 -> 173        0.11701

 Excited State  11:      Singlet-A      6.5113 eV  190.41 nm  f=0.0009  <S**2>=0.000
     158 -> 165       -0.23566
     160 -> 165        0.33839
     160 -> 166        0.11159
     161 -> 165        0.53142
     164 -> 168        0.11906

 Excited State  12:      Singlet-A      6.5142 eV  190.33 nm  f=0.5391  <S**2>=0.000
     162 -> 166        0.22146
     163 -> 167        0.65365

 Excited State  13:      Singlet-A      6.5830 eV  188.34 nm  f=0.0006  <S**2>=0.000
     136 -> 165        0.10492
     157 -> 165        0.65983
     159 -> 165        0.14416

 Excited State  14:      Singlet-A      6.6347 eV  186.87 nm  f=0.0000  <S**2>=0.000
     135 -> 165        0.11280
     140 -> 165        0.15950
     148 -> 165       -0.22107
     152 -> 165       -0.41382
     154 -> 165       -0.14322
     156 -> 165        0.44968

 Excited State  15:      Singlet-A      6.7198 eV  184.51 nm  f=0.0784  <S**2>=0.000
     160 -> 166       -0.36086
     161 -> 165        0.18852
     161 -> 166        0.38690
     162 -> 167       -0.29142
     162 -> 168        0.26412

 Excited State  16:      Singlet-A      6.8432 eV  181.18 nm  f=0.0002  <S**2>=0.000
     146 -> 165        0.10804
     157 -> 165       -0.12130
     159 -> 165        0.68063

 Excited State  17:      Singlet-A      6.9477 eV  178.45 nm  f=0.0023  <S**2>=0.000
     163 -> 168        0.12915
     164 -> 170        0.47911
     164 -> 172        0.42137
     164 -> 174        0.22593
     164 -> 179        0.10092

 Excited State  18:      Singlet-A      6.9694 eV  177.90 nm  f=0.0000  <S**2>=0.000
     164 -> 169       -0.16645
     164 -> 171        0.31658
     164 -> 173        0.38738
     164 -> 175       -0.35689
     164 -> 177        0.13746
     164 -> 178       -0.22801
     164 -> 184        0.10445

 Excited State  19:      Singlet-A      6.9854 eV  177.49 nm  f=0.0027  <S**2>=0.000
     164 -> 176        0.66960
     164 -> 183       -0.14318
     164 -> 185       -0.11087

 Excited State  20:      Singlet-A      7.0014 eV  177.09 nm  f=0.0089  <S**2>=0.000
     155 -> 165        0.15113
     160 -> 167       -0.32815
     161 -> 167        0.21846
     163 -> 168        0.51380
     164 -> 170       -0.13053

 The electronic state is 1-A.
 Alpha  occ. eigenvalues --  -10.24184 -10.22972 -10.22936 -10.22695 -10.22693
 Alpha  occ. eigenvalues --  -10.22621 -10.22619 -10.22572 -10.22570 -10.22513
 Alpha  occ. eigenvalues --  -10.22511 -10.22457 -10.22456 -10.21879 -10.21879
 Alpha  occ. eigenvalues --  -10.21093 -10.21093 -10.20889 -10.20889 -10.20872
 Alpha  occ. eigenvalues --  -10.20872 -10.20863 -10.20863 -10.20857 -10.20857
 Alpha  occ. eigenvalues --  -10.20845 -10.20845 -10.20828 -10.20828 -10.20814
 Alpha  occ. eigenvalues --  -10.20814 -10.20796 -10.20796 -10.20783 -10.20783
 Alpha  occ. eigenvalues --  -10.20759 -10.20759 -10.20715 -10.20715 -10.20630
 Alpha  occ. eigenvalues --  -10.20630 -10.20391 -10.20391  -0.92323  -0.87457
 Alpha  occ. eigenvalues --   -0.85182  -0.84134  -0.84060  -0.83367  -0.83131
 Alpha  occ. eigenvalues --   -0.82084  -0.81787  -0.80609  -0.80281  -0.79445
 Alpha  occ. eigenvalues --   -0.77983  -0.77561  -0.76826  -0.75796  -0.75226
 Alpha  occ. eigenvalues --   -0.73821  -0.73446  -0.72068  -0.70401  -0.68602
 Alpha  occ. eigenvalues --   -0.67327  -0.66060  -0.64991  -0.64174  -0.62715
 Alpha  occ. eigenvalues --   -0.61623  -0.60475  -0.60167  -0.59546  -0.59418
 Alpha  occ. eigenvalues --   -0.59366  -0.59207  -0.59042  -0.58954  -0.58477
 Alpha  occ. eigenvalues --   -0.58444  -0.58439  -0.58187  -0.57195  -0.52643
 Alpha  occ. eigenvalues --   -0.51705  -0.50258  -0.50230  -0.49548  -0.49486
 Alpha  occ. eigenvalues --   -0.49029  -0.48434  -0.48385  -0.47201  -0.46792
 Alpha  occ. eigenvalues --   -0.46550  -0.46390  -0.45768  -0.45091  -0.44983
 Alpha  occ. eigenvalues --   -0.44883  -0.44838  -0.44311  -0.44118  -0.44006
 Alpha  occ. eigenvalues --   -0.43927  -0.43315  -0.43225  -0.42926  -0.42643
 Alpha  occ. eigenvalues --   -0.42626  -0.41939  -0.41611  -0.41012  -0.40745
 Alpha  occ. eigenvalues --   -0.40295  -0.40167  -0.39896  -0.39457  -0.39285
 Alpha  occ. eigenvalues --   -0.38526  -0.38332  -0.38062  -0.37962  -0.37338
 Alpha  occ. eigenvalues --   -0.37164  -0.36974  -0.36612  -0.36236  -0.35833
 Alpha  occ. eigenvalues --   -0.35741  -0.35694  -0.35145  -0.35012  -0.34753
 Alpha  occ. eigenvalues --   -0.34669  -0.34361  -0.34224  -0.33766  -0.33570
 Alpha  occ. eigenvalues --   -0.33551  -0.33258  -0.33149  -0.33149  -0.32982
 Alpha  occ. eigenvalues --   -0.32961  -0.32949  -0.32823  -0.32624  -0.32578
 Alpha  occ. eigenvalues --   -0.32553  -0.32500  -0.32428  -0.32426  -0.32378
 Alpha  occ. eigenvalues --   -0.32378  -0.32090  -0.31748  -0.30099  -0.30008
 Alpha  occ. eigenvalues --   -0.29539  -0.26405  -0.25862  -0.22924
 Alpha virt. eigenvalues --   -0.03622  -0.01570   0.00522   0.03711   0.03842
 Alpha virt. eigenvalues --    0.04177   0.04257   0.04719   0.04885   0.05502
 Alpha virt. eigenvalues --    0.05661   0.05986   0.06277   0.06507   0.06516

 Mulliken charges:
               1
     1  C   -0.091013
     2  C   -0.101254
     3  C   -0.235072
     4  C   -0.369284
     5  C    0.226136
     6  C   -0.244294
     7  H    0.112444
     8  H    0.112776
     9  H    0.107274
    10  H    0.107504
    11  C    0.879567
    12  C   -0.373616
    13  C   -0.234137
    14  C   -0.101638
    15  C   -0.090816
    16  C   -0.244558
    17  C    0.227967
    18  H    0.107273
    19  H    0.112769
    20  H    0.112448
    21  H    0.107505
    22  C   -0.251979
    23  H    0.097782
    24  H    0.097673
    25  C   -0.251979
    26  H    0.097674
    27  H    0.097782
    28  C   -0.243260
    29  H    0.118086
    30  H    0.117886
    31  C   -0.178320
    32  H    0.091578
    33  H    0.091441
    34  C   -0.243260
    35  H    0.118086
    36  H    0.117886
    37  C   -0.178320
    38  H    0.091578
    39  H    0.091440
    40  C   -0.195812
    41  H    0.095085
    42  H    0.095070
    43  C   -0.180636
    44  H    0.090857
    45  H    0.090729
    46  C   -0.195812
    47  H    0.095085
    48  H    0.095070
    49  C   -0.180636
    50  H    0.090857
    51  H    0.090729
    52  C   -0.184408
    53  H    0.091992
    54  H    0.092079
    55  C   -0.184408
    56  H    0.091992
    57  H    0.092079
    58  C   -0.182111
    59  H    0.091265
    60  H    0.091166
    61  C   -0.182110
    62  H    0.091264
    63  H    0.091166
    64  C   -0.183659
    65  H    0.091768
    66  H    0.091695
    67  C   -0.183412
    68  H    0.091464
    69  H    0.091529
    70  C   -0.183382
    71  H    0.091788
    72  H    0.091741
    73  C   -0.186596
    74  H    0.091899
    75  H    0.091935
    76  C   -0.180729
    77  H    0.091405
    78  H    0.091380
    79  C   -0.205872
    80  H    0.091302
    81  H    0.091317
    82  C   -0.158161
    83  H    0.093505
    84  H    0.093495
    85  C   -0.354990
    86  H    0.124574
    87  H    0.112926
    88  H    0.112927
    89  C   -0.183659
    90  H    0.091695
    91  H    0.091768
    92  C   -0.183412
    93  H    0.091464
    94  H    0.091529
    95  C   -0.183382
    96  H    0.091741
    97  H    0.091788
    98  C   -0.186596
    99  H    0.091899
   100  H    0.091935
   101  C   -0.180729
   102  H    0.091380
   103  H    0.091405
   104  C   -0.205872
   105  H    0.091302
   106  H    0.091317
   107  C   -0.158161
   108  H    0.093495
   109  H    0.093504
   110  C   -0.354990
   111  H    0.112926
   112  H    0.124574
   113  H    0.112927
 Sum of Mulliken charges =  -0.00000

 Dipole moment (field-independent basis, Debye):
    X=              0.0000    Y=             -0.1820    Z=             -0.0176  Tot=              0.1829
 Quadrupole moment (field-independent basis, Debye-Ang):
   XX=           -288.1296   YY=           -273.2235   ZZ=           -264.0066
   XY=             -0.0000   XZ=              0.0000   YZ=             -0.5954

 1\1\GINC-LW07\SP\RPBE1PBE TD-FC\def2TZVP\C43H70\LVZIYI\26-Oct-2023\0\\
 #p TD(nstates=20,root=1) pbe1pbe/def2tzvp\\gebf\\0,1\C,0,0.,3.817482,-
 2.80442\C,0,0.,2.534466,-3.340464\C,0,0.,1.420258,-2.507726\C,0,0.,1.6
 03747,-1.137589\C,0,0.,2.895413,-0.599383\C,0,0.,4.007887,-1.429923\H,
 0,0.,4.675479,-3.467192\H,0,0.,2.402742,-4.416621\H,0,0.,0.422949,-2.9
 36306\H,0,0.,5.010973,-1.017096\C,0,0.,0.557487,-0.041118\C,0,0.,1.429
 696,1.198316\C,0,0.,1.045433,2.526208\C,0,0.,2.024072,3.514742\C,0,0.,
 3.372322,3.174646\C,0,0.,3.764109,1.84348\C,0,0.,2.786873,0.857395\H,0

 Normal termination of Gaussian 16 at Thu Oct 26 21:55:21 2023.
