 Gaussian 16, Revision C.02,
 Gaussian 16:  ES64L-G16RevC.02  7-Dec-2021

 --------------------------------------------------
 #p UCAM-B3LYP/def2TZVP nosymm int=nobasistransform
 --------------------------------------------------

 -----
 title
 -----
 Symbolic Z-matrix:
 Charge =  0 Multiplicity = 3

                          Input orientation:
 ---------------------------------------------------------------------
 Center     Atomic      Atomic             Coordinates (Angstroms)
 Number     Number       Type             X           Y           Z
 ---------------------------------------------------------------------
      1          8           0        0.000000    0.000000    0.000000
      2          8           0        0.000000    0.000000    1.161600
 ---------------------------------------------------------------------

 SCF Done:  E(UCAM-B3LYP) =  -150.343102215     A.U. after   11 cycles

 Alpha  occ. eigenvalues --  -19.36134 -19.36115  -1.43182  -0.90982  -0.66423
 Alpha  occ. eigenvalues --   -0.66423  -0.63692  -0.37316  -0.37316
 Alpha virt. eigenvalues --    0.25338   0.36383   0.40684   0.40684   0.46481
 Alpha virt. eigenvalues --    0.50085   0.52370   0.52370   0.79541   1.25492
 Alpha virt. eigenvalues --    1.25492   1.37674   1.37674   1.68471   1.68471

  Beta  occ. eigenvalues --  -19.33044 -19.33002  -1.37667  -0.81558  -0.59548
  Beta  occ. eigenvalues --   -0.55454  -0.55454
  Beta virt. eigenvalues --   -0.04444  -0.04444   0.27923   0.37763   0.43094
  Beta virt. eigenvalues --    0.43094   0.46750   0.53251   0.55666   0.55666
  Beta virt. eigenvalues --    0.81399   1.29588   1.29588   1.41267   1.41267

 Mulliken charges and spin densities:
               1          2
     1  O    0.000000   1.000000
     2  O   -0.000000   1.000000
 Sum of Mulliken charges =  -0.00000   2.00000

 Dipole moment (field-independent basis, Debye):
    X=             -0.0000    Y=              0.0000    Z=             -0.0000  Tot=              0.0000
 Quadrupole moment (field-independent basis, Debye-Ang):
   XX=             -9.9651   YY=             -9.9651   ZZ=            -10.6674
   XY=             -0.0000   XZ=             -0.0000   YZ=              0.0000

 Normal termination of Gaussian 16 at Mon Jul 10 16:31:53 2023.
