 Gaussian 16, Revision A.03,
 Gaussian 16:  ES64L-G16RevA.03 25-Dec-2016

 -----------------------------------------------------
 #p td(nstates=20,root=1) pbe1pbe/def2TZVP iop(9/40=4)
 -----------------------------------------------------

 ------------------------------
 Gaussian input prepared by ASE
 ------------------------------
 Symbolic Z-matrix:
 Charge =  0 Multiplicity = 1

                         Standard orientation:
 ---------------------------------------------------------------------
 Center     Atomic      Atomic             Coordinates (Angstroms)
 Number     Number       Type             X           Y           Z
 ---------------------------------------------------------------------
      1          6           0       -0.652976   -0.023082   -0.000002
      2          1           0       -0.980673   -0.562018   -0.915325
      3          8           0        0.736503    0.133360    0.000000
      4          1           0       -0.980673   -0.562026    0.915327
      5          1           0       -1.127317    0.979819    0.000008
      6          1           0        1.114494   -0.784163   -0.000000
 ---------------------------------------------------------------------

 SCF Done:  E(RPBE1PBE) =  -115.635055578     A.U. after   11 cycles

 Excitation energies and oscillator strengths:

 Excited State   1:      Singlet-A      6.9493 eV  178.41 nm  f=0.0000  <S**2>=0.000
       3 -> 13         0.00209
       3 -> 16         0.00104
       3 -> 20        -0.00021
       3 -> 23        -0.00255
       3 -> 26        -0.00078
       3 -> 29        -0.00143
       3 -> 32        -0.00151
       3 -> 37         0.00022
       3 -> 39         0.00042
       3 -> 42         0.00073
       3 -> 46        -0.00020
       3 -> 49        -0.00079
       3 -> 51        -0.00084
       3 -> 53         0.00019
       3 -> 57        -0.00028
       3 -> 59        -0.00017
       3 -> 66        -0.00010
       3 -> 73         0.00028
       3 -> 80         0.00055
       4 -> 13        -0.00176
       4 -> 16         0.00106
       4 -> 20         0.00116
       4 -> 23         0.00051
       4 -> 26        -0.00117
       4 -> 29         0.00094
       4 -> 32         0.00090
       4 -> 35        -0.00038
       4 -> 37        -0.00138
       4 -> 39         0.00088
       4 -> 42         0.00012
       4 -> 46         0.00067
       4 -> 49         0.00026
       4 -> 51         0.00025
       4 -> 53        -0.00031
       4 -> 57         0.00053
       4 -> 59        -0.00015
       4 -> 64         0.00020
       4 -> 69         0.00020
       4 -> 75        -0.00040
       4 -> 77        -0.00033
       4 -> 80        -0.00037
       4 -> 82         0.00038
       5 -> 13        -0.00106
       5 -> 16        -0.00215
       5 -> 20        -0.00190
       5 -> 23         0.00058
       5 -> 26        -0.00080
       5 -> 29         0.00185
       5 -> 32         0.00245
       5 -> 35        -0.00014
       5 -> 37        -0.00101
       5 -> 39         0.00061
       5 -> 42         0.00023
       5 -> 46         0.00078
       5 -> 49         0.00033
       5 -> 53         0.00051
       5 -> 62        -0.00017
       5 -> 66        -0.00011
       5 -> 73        -0.00042
       5 -> 75        -0.00081
       5 -> 77        -0.00046
       5 -> 80        -0.00072
       5 -> 82         0.00040
       6 -> 10         0.02254
       6 -> 11        -0.01405
       6 -> 12         0.00068
       6 -> 14         0.01267
       6 -> 15        -0.00689
       6 -> 17        -0.00673
       6 -> 18         0.00082
       6 -> 19         0.00242
       6 -> 21        -0.00083
       6 -> 22         0.00288
       6 -> 24        -0.00072
       6 -> 25         0.00635
       6 -> 27         0.00025
       6 -> 28        -0.00260
       6 -> 30         0.00015
       6 -> 31        -0.00102
       6 -> 36         0.00076
       6 -> 40         0.00103
       6 -> 41         0.00134
       6 -> 43         0.00032
       6 -> 44         0.00069
       6 -> 45         0.00021
       6 -> 47        -0.00061
       6 -> 48        -0.00010
       6 -> 50         0.00030
       6 -> 52        -0.00040
       6 -> 54        -0.00068
       6 -> 55        -0.00063
       6 -> 58        -0.00022
       6 -> 60         0.00045
       6 -> 65         0.00019
       6 -> 68        -0.00047
       6 -> 70        -0.00017
       6 -> 71         0.00014
       6 -> 72        -0.00014
       6 -> 74         0.00048
       6 -> 78        -0.00014
       6 -> 79         0.00060
       6 -> 81        -0.00051
       6 -> 83        -0.00037
       7 -> 13         0.00390
       7 -> 16         0.00027
       7 -> 20         0.00170
       7 -> 23        -0.00084
       7 -> 26         0.00204
       7 -> 29        -0.00033
       7 -> 32         0.00079
       7 -> 35         0.00068
       7 -> 37         0.00105
       7 -> 39        -0.00178
       7 -> 42        -0.00107
       7 -> 46        -0.00064
       7 -> 49         0.00016
       7 -> 51         0.00037
       7 -> 53        -0.00015
       7 -> 57        -0.00055
       7 -> 59        -0.00049
       7 -> 62        -0.00018
       7 -> 64        -0.00019
       7 -> 69        -0.00033
       7 -> 73        -0.00058
       7 -> 75         0.00029
       7 -> 77         0.00045
       7 -> 80        -0.00018
       7 -> 82        -0.00085
       8 -> 13        -0.00317
       8 -> 16         0.00045
       8 -> 20         0.00139
       8 -> 23        -0.00183
       8 -> 26         0.00200
       8 -> 29         0.00146
       8 -> 32         0.00191
       8 -> 35        -0.00038
       8 -> 37        -0.00014
       8 -> 39        -0.00144
       8 -> 42        -0.00055
       8 -> 49         0.00038
       8 -> 51         0.00036
       8 -> 53        -0.00041
       8 -> 57        -0.00060
       8 -> 59        -0.00017
       8 -> 66        -0.00015
       8 -> 73        -0.00082
       8 -> 75        -0.00034
       8 -> 77         0.00014
       8 -> 80        -0.00072
       8 -> 82        -0.00057
       9 -> 10         0.70176
       9 -> 11        -0.07291
       9 -> 12        -0.00890
       9 -> 14         0.00840
       9 -> 15         0.00371
       9 -> 17        -0.01353
       9 -> 18        -0.01104
       9 -> 19         0.01947
       9 -> 21        -0.00550
       9 -> 22         0.00926
       9 -> 24         0.00171
       9 -> 25         0.01711
       9 -> 28        -0.00454
       9 -> 30         0.00034
       9 -> 31        -0.00010
       9 -> 34        -0.00039
       9 -> 36         0.00107
       9 -> 38         0.00084
       9 -> 40         0.00082
       9 -> 41         0.00254
       9 -> 43        -0.00031
       9 -> 44         0.00243
       9 -> 45         0.00093
       9 -> 47        -0.00017
       9 -> 48        -0.00066
       9 -> 50         0.00026
       9 -> 52         0.00034
       9 -> 54        -0.00102
       9 -> 55        -0.00026
       9 -> 56         0.00101
       9 -> 58        -0.00070
       9 -> 60         0.00055
       9 -> 63        -0.00019
       9 -> 65         0.00048
       9 -> 67        -0.00011
       9 -> 68        -0.00068
       9 -> 70         0.00019
       9 -> 72        -0.00043
       9 -> 74         0.00089
       9 -> 76         0.00016
       9 -> 78        -0.00029
       9 -> 79         0.00121
       9 -> 81        -0.00104
       9 -> 83        -0.00074
       9 -> 84        -0.00011
       3 <- 13         0.00034
       3 <- 16         0.00060
       3 <- 20        -0.00019
       3 <- 23        -0.00090
       3 <- 26        -0.00081
       3 <- 29        -0.00083
       3 <- 32        -0.00121
       3 <- 39         0.00045
       3 <- 42         0.00059
       3 <- 46        -0.00044
       3 <- 49        -0.00044
       3 <- 51        -0.00020
       3 <- 57         0.00043
       3 <- 69         0.00010
       3 <- 73         0.00028
       3 <- 80         0.00055
       4 <- 13         0.00074
       4 <- 16         0.00052
       4 <- 20         0.00090
       4 <- 23        -0.00058
       4 <- 26        -0.00074
       4 <- 29         0.00072
       4 <- 32         0.00096
       4 <- 35        -0.00030
       4 <- 37        -0.00093
       4 <- 39         0.00042
       4 <- 42         0.00011
       4 <- 46         0.00079
       4 <- 51        -0.00012
       4 <- 53        -0.00012
       4 <- 59        -0.00025
       4 <- 64         0.00016
       4 <- 69         0.00015
       4 <- 75        -0.00038
       4 <- 77        -0.00027
       4 <- 80        -0.00037
       4 <- 82         0.00033
       5 <- 16         0.00056
       5 <- 20        -0.00161
       5 <- 23        -0.00296
       5 <- 26        -0.00046
       5 <- 29         0.00120
       5 <- 32         0.00259
       5 <- 35        -0.00024
       5 <- 37        -0.00113
       5 <- 39         0.00037
       5 <- 42         0.00034
       5 <- 46         0.00080
       5 <- 51        -0.00055
       5 <- 53         0.00068
       5 <- 57        -0.00050
       5 <- 59        -0.00017
       5 <- 62        -0.00017
       5 <- 66        -0.00023
       5 <- 73        -0.00041
       5 <- 75        -0.00078
       5 <- 77        -0.00042
       5 <- 80        -0.00062
       5 <- 82         0.00037
       6 <- 10        -0.00181
       6 <- 11         0.00272
       6 <- 12         0.00045
       6 <- 14        -0.00032
       6 <- 15         0.00018
       6 <- 17        -0.00065
       6 <- 18         0.00073
       6 <- 19        -0.00179
       6 <- 21        -0.00275
       6 <- 22        -0.00119
       6 <- 24        -0.00070
       6 <- 25        -0.00071
       6 <- 27        -0.00026
       6 <- 28        -0.00064
       6 <- 30         0.00025
       6 <- 31         0.00018
       6 <- 33         0.00021
       6 <- 36         0.00095
       6 <- 38         0.00044
       6 <- 40         0.00107
       6 <- 41         0.00109
       6 <- 44         0.00043
       6 <- 45        -0.00030
       6 <- 47         0.00024
       6 <- 52        -0.00037
       6 <- 56        -0.00030
       6 <- 60         0.00021
       6 <- 61        -0.00020
       6 <- 63         0.00026
       6 <- 65         0.00025
       6 <- 68        -0.00017
       6 <- 70        -0.00019
       6 <- 71         0.00010
       6 <- 72        -0.00012
       6 <- 74         0.00046
       6 <- 78        -0.00013
       6 <- 79         0.00056
       6 <- 81        -0.00040
       6 <- 83        -0.00031
       7 <- 13         0.00116
       7 <- 16         0.00088
       7 <- 20         0.00073
       7 <- 23        -0.00150
       7 <- 26         0.00149
       7 <- 29        -0.00041
       7 <- 32         0.00079
       7 <- 35         0.00051
       7 <- 37         0.00080
       7 <- 39        -0.00127
       7 <- 42        -0.00082
       7 <- 46        -0.00051
       7 <- 51         0.00022
       7 <- 57        -0.00044
       7 <- 59        -0.00034
       7 <- 62        -0.00014
       7 <- 64        -0.00017
       7 <- 69        -0.00030
       7 <- 73        -0.00051
       7 <- 75         0.00027
       7 <- 77         0.00037
       7 <- 80        -0.00013
       7 <- 82        -0.00071
       8 <- 13         0.00064
       8 <- 16         0.00116
       8 <- 23        -0.00341
       8 <- 26         0.00078
       8 <- 29         0.00077
       8 <- 32         0.00171
       8 <- 35        -0.00032
       8 <- 39        -0.00137
       8 <- 46         0.00014
       8 <- 51        -0.00015
       8 <- 53        -0.00020
       8 <- 57        -0.00096
       8 <- 59        -0.00026
       8 <- 66        -0.00018
       8 <- 73        -0.00075
       8 <- 75        -0.00035
       8 <- 77         0.00012
       8 <- 80        -0.00058
       8 <- 82        -0.00047
       9 <- 10        -0.00735
       9 <- 11         0.00345
       9 <- 12         0.00131
       9 <- 14         0.00030
       9 <- 15         0.00045
       9 <- 17        -0.00102
       9 <- 18         0.00355
       9 <- 19        -0.00451
       9 <- 21        -0.00235
       9 <- 22        -0.00142
       9 <- 24         0.00168
       9 <- 25        -0.00221
       9 <- 27        -0.00124
       9 <- 28         0.00023
       9 <- 30        -0.00067
       9 <- 31         0.00117
       9 <- 33         0.00028
       9 <- 34         0.00056
       9 <- 36         0.00065
       9 <- 38         0.00138
       9 <- 40         0.00127
       9 <- 41         0.00170
       9 <- 43        -0.00054
       9 <- 44         0.00130
       9 <- 45        -0.00023
       9 <- 47         0.00100
       9 <- 54         0.00044
       9 <- 55         0.00056
       9 <- 58        -0.00058
       9 <- 60         0.00027
       9 <- 61        -0.00039
       9 <- 63         0.00021
       9 <- 65         0.00052
       9 <- 67         0.00012
       9 <- 68        -0.00011
       9 <- 70         0.00011
       9 <- 71        -0.00014
       9 <- 72        -0.00040
       9 <- 74         0.00079
       9 <- 76         0.00020
       9 <- 78        -0.00024
       9 <- 79         0.00111
       9 <- 81        -0.00078
       9 <- 83        -0.00061
 This state for optimization and/or second-order correction.
 Total Energy, E(TD-HF/TD-DFT) =  -115.379675130
 Copying the excited state density for this state as the 1-particle RhoCI density.

 Excited State   2:      Singlet-A      8.5927 eV  144.29 nm  f=0.0604  <S**2>=0.000
       3 -> 13         0.00133
       3 -> 16        -0.00245
       3 -> 20         0.00259
       3 -> 23         0.00202
       3 -> 26         0.00095
       3 -> 29         0.00057
       3 -> 32         0.00045
       3 -> 37        -0.00010
       3 -> 39        -0.00094
       3 -> 42        -0.00071
       3 -> 46        -0.00023
       3 -> 49         0.00032
       3 -> 51         0.00056
       3 -> 57        -0.00018
       3 -> 59         0.00034
       3 -> 64         0.00016
       3 -> 69        -0.00014
       3 -> 73        -0.00017
       3 -> 77         0.00016
       3 -> 80        -0.00027
       3 -> 82        -0.00020
       4 -> 13         0.00203
       4 -> 16         0.00215
       4 -> 20         0.00519
       4 -> 23        -0.00284
       4 -> 26         0.00119
       4 -> 29        -0.00042
       4 -> 32        -0.00123
       4 -> 35        -0.00018
       4 -> 37        -0.00060
       4 -> 39        -0.00055
       4 -> 42        -0.00039
       4 -> 46        -0.00032
       4 -> 49        -0.00046
       4 -> 53        -0.00032
       4 -> 57        -0.00039
       4 -> 75         0.00016
       4 -> 77         0.00037
       4 -> 80         0.00021
       5 -> 13         0.00156
       5 -> 16        -0.00351
       5 -> 20        -0.00171
       5 -> 23         0.00188
       5 -> 26         0.00050
       5 -> 29        -0.00228
       5 -> 32        -0.00115
       5 -> 35         0.00062
       5 -> 37         0.00140
       5 -> 39        -0.00098
       5 -> 42         0.00014
       5 -> 46        -0.00123
       5 -> 49        -0.00013
       5 -> 53         0.00081
       5 -> 57         0.00042
       5 -> 59         0.00010
       5 -> 62         0.00011
       5 -> 64         0.00036
       5 -> 66        -0.00017
       5 -> 69        -0.00036
       5 -> 73         0.00044
       5 -> 75         0.00021
       5 -> 77         0.00037
       5 -> 80         0.00050
       5 -> 82        -0.00028
       6 -> 10        -0.01827
       6 -> 11        -0.00575
       6 -> 12        -0.00058
       6 -> 14        -0.01016
       6 -> 15         0.00066
       6 -> 17        -0.00930
       6 -> 18         0.00622
       6 -> 19        -0.00132
       6 -> 21        -0.00244
       6 -> 22        -0.00440
       6 -> 24        -0.00390
       6 -> 25        -0.00240
       6 -> 27        -0.00021
       6 -> 30         0.00180
       6 -> 31         0.00075
       6 -> 36        -0.00013
       6 -> 40        -0.00136
       6 -> 41        -0.00138
       6 -> 43         0.00065
       6 -> 44        -0.00083
       6 -> 45        -0.00033
       6 -> 47         0.00015
       6 -> 48        -0.00016
       6 -> 52        -0.00086
       6 -> 54        -0.00015
       6 -> 56        -0.00099
       6 -> 58         0.00075
       6 -> 60         0.00030
       6 -> 61        -0.00024
       6 -> 63        -0.00014
       6 -> 65         0.00024
       6 -> 67        -0.00015
       6 -> 68         0.00018
       6 -> 70        -0.00029
       6 -> 71         0.00028
       6 -> 72        -0.00047
       6 -> 74        -0.00039
       6 -> 79        -0.00028
       6 -> 81         0.00035
       6 -> 83         0.00029
       7 -> 13        -0.00351
       7 -> 16        -0.00086
       7 -> 20        -0.00217
       7 -> 26        -0.00239
       7 -> 29        -0.00027
       7 -> 32        -0.00047
       7 -> 35        -0.00013
       7 -> 37        -0.00084
       7 -> 39         0.00167
       7 -> 42         0.00081
       7 -> 46         0.00027
       7 -> 49        -0.00010
       7 -> 53         0.00021
       7 -> 57         0.00087
       7 -> 59        -0.00093
       7 -> 66        -0.00016
       7 -> 69         0.00015
       7 -> 73         0.00033
       7 -> 75        -0.00020
       7 -> 77        -0.00047
       7 -> 80         0.00017
       7 -> 82         0.00040
       8 -> 13         0.00141
       8 -> 16         0.00543
       8 -> 20         0.00399
       8 -> 23        -0.00086
       8 -> 26        -0.00090
       8 -> 29         0.00020
       8 -> 32        -0.00198
       8 -> 35        -0.00015
       8 -> 39         0.00115
       8 -> 42         0.00060
       8 -> 49        -0.00057
       8 -> 51        -0.00011
       8 -> 53        -0.00096
       8 -> 57        -0.00015
       8 -> 59         0.00030
       8 -> 62         0.00013
       8 -> 64        -0.00012
       8 -> 69         0.00056
       8 -> 73         0.00052
       8 -> 77        -0.00014
       8 -> 80         0.00054
       8 -> 82         0.00025
       9 -> 10         0.07373
       9 -> 11         0.70206
       9 -> 12         0.00633
       9 -> 14         0.00156
       9 -> 15         0.00242
       9 -> 17        -0.02280
       9 -> 18        -0.00257
       9 -> 19        -0.01835
       9 -> 21        -0.00541
       9 -> 22        -0.00328
       9 -> 24        -0.00658
       9 -> 25        -0.00550
       9 -> 27        -0.00015
       9 -> 28         0.00129
       9 -> 30        -0.00053
       9 -> 31         0.00128
       9 -> 33        -0.00060
       9 -> 34        -0.00114
       9 -> 36        -0.00084
       9 -> 38        -0.00077
       9 -> 40        -0.00106
       9 -> 41        -0.00223
       9 -> 43         0.00071
       9 -> 44        -0.00171
       9 -> 45        -0.00010
       9 -> 47         0.00105
       9 -> 48        -0.00017
       9 -> 50        -0.00048
       9 -> 52         0.00077
       9 -> 54         0.00052
       9 -> 55         0.00092
       9 -> 56         0.00031
       9 -> 60        -0.00051
       9 -> 68         0.00019
       9 -> 70         0.00024
       9 -> 71        -0.00036
       9 -> 72        -0.00019
       9 -> 74        -0.00069
       9 -> 76         0.00012
       9 -> 78         0.00024
       9 -> 79        -0.00070
       9 -> 81         0.00069
       9 -> 83         0.00050
       9 -> 84         0.00011
       3 <- 13         0.00057
       3 <- 16        -0.00061
       3 <- 20         0.00141
       3 <- 23         0.00063
       3 <- 26         0.00102
       3 <- 29         0.00011
       3 <- 32         0.00044
       3 <- 37         0.00012
       3 <- 39        -0.00091
       3 <- 42        -0.00055
       3 <- 49         0.00015
       3 <- 51         0.00018
       3 <- 57        -0.00055
       3 <- 66        -0.00012
       3 <- 69        -0.00012
       3 <- 73        -0.00017
       3 <- 77         0.00017
       3 <- 80        -0.00026
       3 <- 82        -0.00019
       4 <- 13         0.00213
       4 <- 16         0.00030

 The electronic state is 1-A.
 Alpha  occ. eigenvalues --  -19.20556 -10.26302  -1.04945  -0.69347  -0.52053
 Alpha  occ. eigenvalues --   -0.45663  -0.44135  -0.34740  -0.28727
 Alpha virt. eigenvalues --    0.03499   0.08144   0.12676   0.12770   0.14630
 Alpha virt. eigenvalues --    0.23094   0.23477   0.32607   0.37396   0.39232
 Alpha virt. eigenvalues --    0.45301   0.45678   0.47833   0.51216   0.51672

 Mulliken charges:
               1
     1  C   -0.199109
     2  H    0.107477
     3  O   -0.453443
     4  H    0.107476
     5  H    0.125613
     6  H    0.311987
 Sum of Mulliken charges =   0.00000

 Dipole moment (field-independent basis, Debye):
    X=             -0.7070    Y=             -1.5298    Z=             -0.0000  Tot=              1.6853
 Quadrupole moment (field-independent basis, Debye-Ang):
   XX=            -13.0874   YY=            -12.1626   ZZ=            -13.7578
   XY=             -2.3616   XZ=              0.0000   YZ=              0.0000

 1\1\GINC-LW07\SP\RPBE1PBE TD-FC\def2TZVP\C1H4O1\LVZIYI\05-Dec-2023\0\\
 #p td(nstates=20,root=1) pbe1pbe/def2TZVP iop(9/40=4)\\Gaussian input
 prepared by ASE\\0,1\C,0,-4.89126,3.2977,0.00029\H,0,-5.28213,3.05494,
 -1.01161\O,0,-3.49307,3.28429,-0.00328\H,0,-5.28213,2.58374,0.75736\H,
 0,-5.23998,4.3154,0.27138\H,0,-3.22959,2.35981,-0.24953\\Version=ES64L
 -G16RevA.03\State=1-A\HF=-115.6350556\RMSD=3.594e-09\PG=C01 [X(C1H4O1)
 ]\\@

 Normal termination of Gaussian 16 at Tue Dec  5 22:57:48 2023.
